<?xml version="1.0" encoding="UTF-8"?>

<!-- generated on 05/30/20 12:46:14 by Eclipse SUMO GUI Version 1.6.0
<configuration xmlns:xsi="http://www.w3.org/2001/XMLSchema-instance" xsi:noNamespaceSchemaLocation="http://sumo.dlr.de/xsd/sumoConfiguration.xsd">

    <input>
        <net-file value="thesis_single.net.xml"/>
        <route-files value="thesis_single_0.3_flow.rou.xml"/>
        <additional-files value="thesis_single.add.xml"/>
    </input>

    <output>
        <tripinfo-output value="thesis_single_priority_tripInfo.xml"/>
    </output>

    <time>
        <begin value="0"/>
        <end value="7200"/>
    </time>

    <traci_server>
        <remote-port value="57245"/>
    </traci_server>

</configuration>
-->

<tripinfos xmlns:xsi="http://www.w3.org/2001/XMLSchema-instance" xsi:noNamespaceSchemaLocation="http://sumo.dlr.de/xsd/tripinfo_file.xsd">
