<?xml version="1.0" encoding="UTF-8"?>

<!-- generated on 06/20/20 16:55:07 by Eclipse SUMO GUI Version 1.6.0
<configuration xmlns:xsi="http://www.w3.org/2001/XMLSchema-instance" xsi:noNamespaceSchemaLocation="http://sumo.dlr.de/xsd/sumoConfiguration.xsd">

    <input>
        <net-file value="thesis_single_500.net.xml"/>
        <route-files value="thesis_single_peakHour_flow_vc0.9.rou.xml"/>
    </input>

    <output>
        <tripinfo-output value="thesis_single_priority_tripInfo_1.xml"/>
    </output>

    <time>
        <begin value="0"/>
        <end value="7500"/>
    </time>

    <traci_server>
        <remote-port value="52042"/>
    </traci_server>

    <random_number>
        <random value="true"/>
        <seed value="8"/>
    </random_number>

</configuration>
-->

<tripinfos xmlns:xsi="http://www.w3.org/2001/XMLSchema-instance" xsi:noNamespaceSchemaLocation="http://sumo.dlr.de/xsd/tripinfo_file.xsd">
    <tripinfo id="Phase5THR_flow.0" depart="3.00" departLane="C4E4_0" departPos="4.10" departSpeed="0.00" departDelay="3.00" arrival="76.00" arrivalLane="E2N1_0" arrivalPos="400.00" arrivalSpeed="13.71" duration="73.00" routeLength="998.04" waitingTime="0.00" waitingCount="0" stopTime="0.00" timeLoss="6.54" rerouteNo="1" devices="tripinfo_Phase5THR_flow.0 routing_Phase5THR_flow.0" vType="Auto" speedFactor="1.08" vaporized=""/>
    <tripinfo id="Phase5THR_flow.1" depart="8.00" departLane="C4E4_0" departPos="4.10" departSpeed="0.00" departDelay="2.64" arrival="79.00" arrivalLane="E2N1_1" arrivalPos="400.00" arrivalSpeed="15.59" duration="71.00" routeLength="998.04" waitingTime="0.00" waitingCount="0" stopTime="0.00" timeLoss="7.06" rerouteNo="1" devices="tripinfo_Phase5THR_flow.1 routing_Phase5THR_flow.1" vType="Auto" speedFactor="1.13" vaporized=""/>
    <tripinfo id="Phase1THR_flow.1" depart="8.00" departLane="N1E2_0" departPos="4.10" departSpeed="0.00" departDelay="0.05" arrival="80.00" arrivalLane="E4C4_0" arrivalPos="450.00" arrivalSpeed="15.12" duration="72.00" routeLength="998.04" waitingTime="0.00" waitingCount="0" stopTime="0.00" timeLoss="6.48" rerouteNo="1" devices="tripinfo_Phase1THR_flow.1 routing_Phase1THR_flow.1" vType="Auto" speedFactor="1.10" vaporized=""/>
    <tripinfo id="Special_1" depart="0.00" departLane="C4E4_0" departPos="5.10" departSpeed="0.00" departDelay="0.00" arrival="83.00" arrivalLane="E2N1_0" arrivalPos="400.00" arrivalSpeed="13.47" duration="83.00" routeLength="997.04" waitingTime="0.00" waitingCount="0" stopTime="0.00" timeLoss="10.43" rerouteNo="0" devices="tripinfo_Special_1" vType="Special" speedFactor="1.00" vaporized=""/>
    <tripinfo id="Phase5THR_flow.2" depart="11.00" departLane="C4E4_0" departPos="4.10" departSpeed="0.00" departDelay="0.27" arrival="87.00" arrivalLane="E2N1_0" arrivalPos="400.00" arrivalSpeed="14.47" duration="76.00" routeLength="998.04" waitingTime="0.00" waitingCount="0" stopTime="0.00" timeLoss="7.12" rerouteNo="1" devices="tripinfo_Phase5THR_flow.2 routing_Phase5THR_flow.2" vType="Auto" speedFactor="1.05" vaporized=""/>
    <tripinfo id="Phase5THR_flow.3" depart="17.00" departLane="C4E4_0" departPos="4.10" departSpeed="0.00" departDelay="0.91" arrival="89.00" arrivalLane="E2N1_0" arrivalPos="400.00" arrivalSpeed="14.43" duration="72.00" routeLength="998.04" waitingTime="0.00" waitingCount="0" stopTime="0.00" timeLoss="6.71" rerouteNo="1" devices="tripinfo_Phase5THR_flow.3 routing_Phase5THR_flow.3" vType="Auto" speedFactor="1.11" vaporized=""/>
    <tripinfo id="Phase1Right_flow.0" depart="3.00" departLane="N1E2_0" departPos="4.10" departSpeed="0.00" departDelay="3.00" arrival="92.00" arrivalLane="E1C1_0" arrivalPos="400.00" arrivalSpeed="12.43" duration="89.00" routeLength="979.87" waitingTime="0.00" waitingCount="0" stopTime="0.00" timeLoss="10.88" rerouteNo="1" devices="tripinfo_Phase1Right_flow.0 routing_Phase1Right_flow.0" vType="Auto" speedFactor="0.93" vaporized=""/>
    <tripinfo id="Phase5Right_flow.0" depart="5.00" departLane="C4E4_0" departPos="4.10" departSpeed="0.00" departDelay="5.00" arrival="92.00" arrivalLane="E3J2_0" arrivalPos="400.00" arrivalSpeed="12.30" duration="87.00" routeLength="979.87" waitingTime="0.00" waitingCount="0" stopTime="0.00" timeLoss="10.01" rerouteNo="1" devices="tripinfo_Phase5Right_flow.0 routing_Phase5Right_flow.0" vType="Auto" speedFactor="0.93" vaporized=""/>
    <tripinfo id="Phase1THR_flow.2" depart="16.00" departLane="N1E2_0" departPos="4.10" departSpeed="0.00" departDelay="0.11" arrival="92.00" arrivalLane="E4C4_1" arrivalPos="450.00" arrivalSpeed="13.18" duration="76.00" routeLength="998.04" waitingTime="0.00" waitingCount="0" stopTime="0.00" timeLoss="6.83" rerouteNo="1" devices="tripinfo_Phase1THR_flow.2 routing_Phase1THR_flow.2" vType="Auto" speedFactor="1.04" vaporized=""/>
    <tripinfo id="Phase1Right_flow.1" depart="22.00" departLane="N1E2_0" departPos="4.10" departSpeed="0.00" departDelay="0.05" arrival="92.00" arrivalLane="E1C1_1" arrivalPos="400.00" arrivalSpeed="15.08" duration="70.00" routeLength="979.87" waitingTime="0.00" waitingCount="0" stopTime="0.00" timeLoss="7.67" rerouteNo="1" devices="tripinfo_Phase1Right_flow.1 routing_Phase1Right_flow.1" vType="Auto" speedFactor="1.14" vaporized=""/>
    <tripinfo id="Phase1THR_flow.0" depart="0.00" departLane="N1E2_0" departPos="4.10" departSpeed="0.00" departDelay="0.00" arrival="93.00" arrivalLane="E4C4_0" arrivalPos="450.00" arrivalSpeed="10.40" duration="93.00" routeLength="998.04" waitingTime="0.00" waitingCount="0" stopTime="0.00" timeLoss="8.03" rerouteNo="1" devices="tripinfo_Phase1THR_flow.0 routing_Phase1THR_flow.0" vType="Auto" speedFactor="0.85" vaporized=""/>
    <tripinfo id="Phase5Right_flow.1" depart="20.00" departLane="C4E4_0" departPos="4.10" departSpeed="0.00" departDelay="2.09" arrival="96.00" arrivalLane="E3J2_0" arrivalPos="400.00" arrivalSpeed="13.81" duration="76.00" routeLength="979.87" waitingTime="0.00" waitingCount="0" stopTime="0.00" timeLoss="7.89" rerouteNo="1" devices="tripinfo_Phase5Right_flow.1 routing_Phase5Right_flow.1" vType="Auto" speedFactor="1.04" vaporized=""/>
    <tripinfo id="Phase2_flow.1" depart="25.00" departLane="C4E4_1" departPos="4.10" departSpeed="0.00" departDelay="0.84" arrival="100.00" arrivalLane="E1C1_1" arrivalPos="400.00" arrivalSpeed="14.86" duration="75.00" routeLength="1000.69" waitingTime="0.00" waitingCount="0" stopTime="0.00" timeLoss="10.54" rerouteNo="1" devices="tripinfo_Phase2_flow.1 routing_Phase2_flow.1" vType="Auto" speedFactor="1.13" vaporized=""/>
    <tripinfo id="Phase2_flow.0" depart="0.00" departLane="C4E4_1" departPos="4.10" departSpeed="0.00" departDelay="0.00" arrival="101.00" arrivalLane="E1C1_0" arrivalPos="400.00" arrivalSpeed="13.27" duration="101.00" routeLength="1000.69" waitingTime="20.00" waitingCount="1" stopTime="0.00" timeLoss="31.43" rerouteNo="1" devices="tripinfo_Phase2_flow.0 routing_Phase2_flow.0" vType="Auto" speedFactor="1.05" vaporized=""/>
    <tripinfo id="Phase6_flow.0" depart="0.00" departLane="N1E2_1" departPos="4.10" departSpeed="0.00" departDelay="0.00" arrival="106.00" arrivalLane="E3J2_0" arrivalPos="400.00" arrivalSpeed="11.50" duration="106.00" routeLength="1000.69" waitingTime="16.00" waitingCount="1" stopTime="0.00" timeLoss="27.35" rerouteNo="1" devices="tripinfo_Phase6_flow.0 routing_Phase6_flow.0" vType="Auto" speedFactor="0.93" vaporized=""/>
    <tripinfo id="Phase6_flow.1" depart="32.00" departLane="N1E2_1" departPos="4.10" departSpeed="0.00" departDelay="0.97" arrival="106.00" arrivalLane="E3J2_1" arrivalPos="400.00" arrivalSpeed="14.25" duration="74.00" routeLength="1000.69" waitingTime="0.00" waitingCount="0" stopTime="0.00" timeLoss="6.42" rerouteNo="1" devices="tripinfo_Phase6_flow.1 routing_Phase6_flow.1" vType="Auto" speedFactor="1.07" vaporized=""/>
    <tripinfo id="Phase3Right_flow.0" depart="3.00" departLane="C1E1_0" departPos="4.10" departSpeed="0.00" departDelay="3.00" arrival="110.00" arrivalLane="E4C4_0" arrivalPos="450.00" arrivalSpeed="15.19" duration="107.00" routeLength="979.87" waitingTime="26.00" waitingCount="1" stopTime="0.00" timeLoss="44.84" rerouteNo="1" devices="tripinfo_Phase3Right_flow.0 routing_Phase3Right_flow.0" vType="Auto" speedFactor="1.14" vaporized=""/>
    <tripinfo id="Phase3THR_flow.5" depart="27.00" departLane="C1E1_0" departPos="4.10" departSpeed="0.00" departDelay="0.80" arrival="110.00" arrivalLane="E3J2_2" arrivalPos="400.00" arrivalSpeed="17.34" duration="83.00" routeLength="998.04" waitingTime="13.00" waitingCount="1" stopTime="0.00" timeLoss="26.95" rerouteNo="1" devices="tripinfo_Phase3THR_flow.5 routing_Phase3THR_flow.5" vType="Auto" speedFactor="1.29" vaporized=""/>
    <tripinfo id="Phase7THR_flow.2" depart="12.00" departLane="J2E3_0" departPos="4.10" departSpeed="0.00" departDelay="0.87" arrival="111.00" arrivalLane="E1C1_0" arrivalPos="400.00" arrivalSpeed="14.27" duration="99.00" routeLength="998.04" waitingTime="22.00" waitingCount="1" stopTime="0.00" timeLoss="33.47" rerouteNo="1" devices="tripinfo_Phase7THR_flow.2 routing_Phase7THR_flow.2" vType="Auto" speedFactor="1.11" vaporized=""/>
    <tripinfo id="Phase7Right_flow.0" depart="3.00" departLane="J2E3_0" departPos="4.10" departSpeed="0.00" departDelay="3.00" arrival="112.00" arrivalLane="E2N1_0" arrivalPos="400.00" arrivalSpeed="14.53" duration="109.00" routeLength="979.87" waitingTime="26.00" waitingCount="1" stopTime="0.00" timeLoss="43.34" rerouteNo="1" devices="tripinfo_Phase7Right_flow.0 routing_Phase7Right_flow.0" vType="Auto" speedFactor="1.09" vaporized=""/>
    <tripinfo id="Phase3THR_flow.2" depart="11.00" departLane="C1E1_0" departPos="4.10" departSpeed="0.00" departDelay="0.52" arrival="112.00" arrivalLane="E3J2_1" arrivalPos="400.00" arrivalSpeed="15.69" duration="101.00" routeLength="998.04" waitingTime="24.00" waitingCount="1" stopTime="0.00" timeLoss="37.15" rerouteNo="1" devices="tripinfo_Phase3THR_flow.2 routing_Phase3THR_flow.2" vType="Auto" speedFactor="1.14" vaporized=""/>
    <tripinfo id="Phase3THR_flow.1" depart="6.00" departLane="C1E1_0" departPos="4.10" departSpeed="0.00" departDelay="0.76" arrival="113.00" arrivalLane="E3J2_0" arrivalPos="400.00" arrivalSpeed="13.36" duration="107.00" routeLength="998.04" waitingTime="26.00" waitingCount="1" stopTime="0.00" timeLoss="37.18" rerouteNo="1" devices="tripinfo_Phase3THR_flow.1 routing_Phase3THR_flow.1" vType="Auto" speedFactor="1.04" vaporized=""/>
    <tripinfo id="Phase3THR_flow.6" depart="32.00" departLane="C1E1_0" departPos="4.10" departSpeed="0.00" departDelay="0.56" arrival="114.00" arrivalLane="E3J2_1" arrivalPos="400.00" arrivalSpeed="15.43" duration="82.00" routeLength="998.04" waitingTime="7.00" waitingCount="1" stopTime="0.00" timeLoss="19.86" rerouteNo="1" devices="tripinfo_Phase3THR_flow.6 routing_Phase3THR_flow.6" vType="Auto" speedFactor="1.16" vaporized=""/>
    <tripinfo id="Phase7THR_flow.0" depart="0.00" departLane="J2E3_0" departPos="4.10" departSpeed="0.00" departDelay="0.00" arrival="118.00" arrivalLane="E1C1_0" arrivalPos="400.00" arrivalSpeed="11.93" duration="118.00" routeLength="998.04" waitingTime="28.00" waitingCount="1" stopTime="0.00" timeLoss="39.98" rerouteNo="1" devices="tripinfo_Phase7THR_flow.0 routing_Phase7THR_flow.0" vType="Auto" speedFactor="0.93" vaporized=""/>
    <tripinfo id="Phase7THR_flow.1" depart="6.00" departLane="J2E3_0" departPos="4.10" departSpeed="0.00" departDelay="0.44" arrival="119.00" arrivalLane="E1C1_1" arrivalPos="400.00" arrivalSpeed="11.89" duration="113.00" routeLength="998.04" waitingTime="21.00" waitingCount="1" stopTime="0.00" timeLoss="35.44" rerouteNo="1" devices="tripinfo_Phase7THR_flow.1 routing_Phase7THR_flow.1" vType="Auto" speedFactor="0.93" vaporized=""/>
    <tripinfo id="Phase7THR_flow.5" depart="28.00" departLane="J2E3_0" departPos="4.10" departSpeed="0.00" departDelay="0.18" arrival="119.00" arrivalLane="E1C1_2" arrivalPos="400.00" arrivalSpeed="14.26" duration="91.00" routeLength="998.04" waitingTime="6.00" waitingCount="1" stopTime="0.00" timeLoss="21.02" rerouteNo="1" devices="tripinfo_Phase7THR_flow.5 routing_Phase7THR_flow.5" vType="Auto" speedFactor="1.03" vaporized=""/>
    <tripinfo id="Phase3THR_flow.0" depart="0.00" departLane="C1E1_0" departPos="4.10" departSpeed="0.00" departDelay="0.00" arrival="120.00" arrivalLane="E3J2_0" arrivalPos="400.00" arrivalSpeed="10.95" duration="120.00" routeLength="998.04" waitingTime="27.00" waitingCount="1" stopTime="0.00" timeLoss="38.60" rerouteNo="1" devices="tripinfo_Phase3THR_flow.0 routing_Phase3THR_flow.0" vType="Auto" speedFactor="0.89" vaporized=""/>
    <tripinfo id="Phase3THR_flow.3" depart="16.00" departLane="C1E1_0" departPos="4.10" departSpeed="0.00" departDelay="0.28" arrival="121.00" arrivalLane="E3J2_0" arrivalPos="400.00" arrivalSpeed="12.69" duration="105.00" routeLength="998.04" waitingTime="17.00" waitingCount="1" stopTime="0.00" timeLoss="33.05" rerouteNo="1" devices="tripinfo_Phase3THR_flow.3 routing_Phase3THR_flow.3" vType="Auto" speedFactor="1.00" vaporized=""/>
    <tripinfo id="Phase3THR_flow.4" depart="21.00" departLane="C1E1_0" departPos="4.10" departSpeed="0.00" departDelay="0.04" arrival="121.00" arrivalLane="E3J2_1" arrivalPos="400.00" arrivalSpeed="12.87" duration="100.00" routeLength="998.04" waitingTime="14.00" waitingCount="1" stopTime="0.00" timeLoss="25.52" rerouteNo="1" devices="tripinfo_Phase3THR_flow.4 routing_Phase3THR_flow.4" vType="Auto" speedFactor="0.97" vaporized=""/>
    <tripinfo id="Phase7THR_flow.4" depart="23.00" departLane="J2E3_0" departPos="4.10" departSpeed="0.00" departDelay="0.74" arrival="121.00" arrivalLane="E1C1_0" arrivalPos="400.00" arrivalSpeed="11.96" duration="98.00" routeLength="998.04" waitingTime="7.00" waitingCount="1" stopTime="0.00" timeLoss="20.71" rerouteNo="1" devices="tripinfo_Phase7THR_flow.4 routing_Phase7THR_flow.4" vType="Auto" speedFactor="0.94" vaporized=""/>
    <tripinfo id="Phase3THR_flow.7" depart="37.00" departLane="C1E1_0" departPos="4.10" departSpeed="0.00" departDelay="0.32" arrival="123.00" arrivalLane="E3J2_0" arrivalPos="400.00" arrivalSpeed="12.92" duration="86.00" routeLength="998.04" waitingTime="0.00" waitingCount="0" stopTime="0.00" timeLoss="11.28" rerouteNo="1" devices="tripinfo_Phase3THR_flow.7 routing_Phase3THR_flow.7" vType="Auto" speedFactor="0.97" vaporized=""/>
    <tripinfo id="Phase7THR_flow.6" depart="34.00" departLane="J2E3_0" departPos="4.10" departSpeed="0.00" departDelay="0.62" arrival="129.00" arrivalLane="E1C1_1" arrivalPos="400.00" arrivalSpeed="10.76" duration="95.00" routeLength="998.04" waitingTime="0.00" waitingCount="0" stopTime="0.00" timeLoss="8.89" rerouteNo="1" devices="tripinfo_Phase7THR_flow.6 routing_Phase7THR_flow.6" vType="Auto" speedFactor="0.84" vaporized=""/>
    <tripinfo id="Phase7THR_flow.7" depart="39.00" departLane="J2E3_0" departPos="4.10" departSpeed="0.00" departDelay="0.05" arrival="129.00" arrivalLane="E1C1_2" arrivalPos="400.00" arrivalSpeed="16.07" duration="90.00" routeLength="998.04" waitingTime="0.00" waitingCount="0" stopTime="0.00" timeLoss="29.17" rerouteNo="1" devices="tripinfo_Phase7THR_flow.7 routing_Phase7THR_flow.7" vType="Auto" speedFactor="1.19" vaporized=""/>
    <tripinfo id="Phase7THR_flow.3" depart="17.00" departLane="J2E3_0" departPos="4.10" departSpeed="0.00" departDelay="0.31" arrival="130.00" arrivalLane="E1C1_0" arrivalPos="400.00" arrivalSpeed="10.49" duration="113.00" routeLength="998.04" waitingTime="4.00" waitingCount="1" stopTime="0.00" timeLoss="19.52" rerouteNo="1" devices="tripinfo_Phase7THR_flow.3 routing_Phase7THR_flow.3" vType="Auto" speedFactor="0.77" vaporized=""/>
    <tripinfo id="Phase3THR_flow.9" depart="48.00" departLane="C1E1_0" departPos="4.10" departSpeed="0.00" departDelay="0.84" arrival="131.00" arrivalLane="E3J2_0" arrivalPos="400.00" arrivalSpeed="13.00" duration="83.00" routeLength="998.04" waitingTime="0.00" waitingCount="0" stopTime="0.00" timeLoss="7.18" rerouteNo="1" devices="tripinfo_Phase3THR_flow.9 routing_Phase3THR_flow.9" vType="Auto" speedFactor="0.95" vaporized=""/>
    <tripinfo id="Phase3THR_flow.8" depart="42.00" departLane="C1E1_0" departPos="4.10" departSpeed="0.00" departDelay="0.08" arrival="133.00" arrivalLane="E3J2_0" arrivalPos="400.00" arrivalSpeed="10.94" duration="91.00" routeLength="998.04" waitingTime="0.00" waitingCount="0" stopTime="0.00" timeLoss="7.97" rerouteNo="1" devices="tripinfo_Phase3THR_flow.8 routing_Phase3THR_flow.8" vType="Auto" speedFactor="0.87" vaporized=""/>
    <tripinfo id="Phase7THR_flow.9" depart="51.00" departLane="J2E3_0" departPos="4.10" departSpeed="0.00" departDelay="0.92" arrival="133.00" arrivalLane="E1C1_1" arrivalPos="400.00" arrivalSpeed="12.14" duration="82.00" routeLength="998.04" waitingTime="0.00" waitingCount="0" stopTime="0.00" timeLoss="7.08" rerouteNo="1" devices="tripinfo_Phase7THR_flow.9 routing_Phase7THR_flow.9" vType="Auto" speedFactor="0.96" vaporized=""/>
    <tripinfo id="Phase7THR_flow.8" depart="45.00" departLane="J2E3_0" departPos="4.10" departSpeed="0.00" departDelay="0.49" arrival="134.00" arrivalLane="E1C1_0" arrivalPos="400.00" arrivalSpeed="11.27" duration="89.00" routeLength="998.04" waitingTime="0.00" waitingCount="0" stopTime="0.00" timeLoss="7.79" rerouteNo="1" devices="tripinfo_Phase7THR_flow.8 routing_Phase7THR_flow.8" vType="Auto" speedFactor="0.89" vaporized=""/>
    <tripinfo id="Phase3THR_flow.11" depart="58.00" departLane="C1E1_0" departPos="4.10" departSpeed="0.00" departDelay="0.36" arrival="136.00" arrivalLane="E3J2_1" arrivalPos="400.00" arrivalSpeed="12.94" duration="78.00" routeLength="998.04" waitingTime="0.00" waitingCount="0" stopTime="0.00" timeLoss="6.97" rerouteNo="1" devices="tripinfo_Phase3THR_flow.11 routing_Phase3THR_flow.11" vType="Auto" speedFactor="1.02" vaporized=""/>
    <tripinfo id="Phase8_flow.0" depart="0.00" departLane="C1E1_1" departPos="4.10" departSpeed="0.00" departDelay="0.00" arrival="138.00" arrivalLane="E2N1_0" arrivalPos="400.00" arrivalSpeed="14.12" duration="138.00" routeLength="1000.69" waitingTime="61.00" waitingCount="1" stopTime="0.00" timeLoss="72.76" rerouteNo="1" devices="tripinfo_Phase8_flow.0 routing_Phase8_flow.0" vType="Auto" speedFactor="1.12" vaporized=""/>
    <tripinfo id="Phase4_flow.0" depart="0.00" departLane="J2E3_1" departPos="4.10" departSpeed="0.00" departDelay="0.00" arrival="139.00" arrivalLane="E4C4_0" arrivalPos="450.00" arrivalSpeed="15.39" duration="139.00" routeLength="1000.69" waitingTime="65.00" waitingCount="1" stopTime="0.00" timeLoss="76.67" rerouteNo="1" devices="tripinfo_Phase4_flow.0 routing_Phase4_flow.0" vType="Auto" speedFactor="1.16" vaporized=""/>
    <tripinfo id="Phase3THR_flow.10" depart="53.00" departLane="C1E1_0" departPos="4.10" departSpeed="0.00" departDelay="0.60" arrival="139.00" arrivalLane="E3J2_0" arrivalPos="400.00" arrivalSpeed="12.47" duration="86.00" routeLength="998.04" waitingTime="0.00" waitingCount="0" stopTime="0.00" timeLoss="6.99" rerouteNo="1" devices="tripinfo_Phase3THR_flow.10 routing_Phase3THR_flow.10" vType="Auto" speedFactor="0.91" vaporized=""/>
    <tripinfo id="Phase3THR_flow.12" depart="63.00" departLane="C1E1_0" departPos="4.10" departSpeed="0.00" departDelay="0.12" arrival="139.00" arrivalLane="E3J2_1" arrivalPos="400.00" arrivalSpeed="13.77" duration="76.00" routeLength="998.04" waitingTime="0.00" waitingCount="0" stopTime="0.00" timeLoss="6.17" rerouteNo="1" devices="tripinfo_Phase3THR_flow.12 routing_Phase3THR_flow.12" vType="Auto" speedFactor="1.03" vaporized=""/>
    <tripinfo id="Phase4_flow.1" depart="16.00" departLane="J2E3_1" departPos="4.10" departSpeed="0.00" departDelay="0.68" arrival="143.00" arrivalLane="E4C4_0" arrivalPos="450.00" arrivalSpeed="14.57" duration="127.00" routeLength="1000.69" waitingTime="48.00" waitingCount="1" stopTime="0.00" timeLoss="60.32" rerouteNo="1" devices="tripinfo_Phase4_flow.1 routing_Phase4_flow.1" vType="Auto" speedFactor="1.09" vaporized=""/>
    <tripinfo id="Phase8_flow.2" depart="29.00" departLane="C1E1_1" departPos="4.10" departSpeed="0.00" departDelay="0.31" arrival="144.00" arrivalLane="E2N1_1" arrivalPos="400.00" arrivalSpeed="13.25" duration="115.00" routeLength="1000.69" waitingTime="33.00" waitingCount="1" stopTime="0.00" timeLoss="45.38" rerouteNo="1" devices="tripinfo_Phase8_flow.2 routing_Phase8_flow.2" vType="Auto" speedFactor="1.05" vaporized=""/>
    <tripinfo id="Phase8_flow.1" depart="15.00" departLane="C1E1_1" departPos="4.10" departSpeed="0.00" departDelay="0.66" arrival="145.00" arrivalLane="E2N1_0" arrivalPos="400.00" arrivalSpeed="13.08" duration="130.00" routeLength="1000.69" waitingTime="43.00" waitingCount="1" stopTime="0.00" timeLoss="54.33" rerouteNo="1" devices="tripinfo_Phase8_flow.1 routing_Phase8_flow.1" vType="Auto" speedFactor="0.96" vaporized=""/>
    <tripinfo id="Phase8_flow.5" depart="72.00" departLane="C1E1_1" departPos="4.10" departSpeed="0.00" departDelay="0.29" arrival="148.00" arrivalLane="E2N1_1" arrivalPos="400.00" arrivalSpeed="14.55" duration="76.00" routeLength="1000.69" waitingTime="0.00" waitingCount="0" stopTime="0.00" timeLoss="10.23" rerouteNo="1" devices="tripinfo_Phase8_flow.5 routing_Phase8_flow.5" vType="Auto" speedFactor="1.11" vaporized=""/>
    <tripinfo id="Phase8_flow.3" depart="44.00" departLane="C1E1_1" departPos="4.10" departSpeed="0.00" departDelay="0.97" arrival="151.00" arrivalLane="E2N1_0" arrivalPos="400.00" arrivalSpeed="12.58" duration="107.00" routeLength="1000.69" waitingTime="14.00" waitingCount="1" stopTime="0.00" timeLoss="28.05" rerouteNo="1" devices="tripinfo_Phase8_flow.3 routing_Phase8_flow.3" vType="Auto" speedFactor="0.92" vaporized=""/>
    <tripinfo id="Phase4_flow.3" depart="46.00" departLane="J2E3_1" departPos="4.10" departSpeed="0.00" departDelay="0.04" arrival="151.00" arrivalLane="E4C4_0" arrivalPos="450.00" arrivalSpeed="13.51" duration="105.00" routeLength="1000.69" waitingTime="18.00" waitingCount="1" stopTime="0.00" timeLoss="31.50" rerouteNo="1" devices="tripinfo_Phase4_flow.3 routing_Phase4_flow.3" vType="Auto" speedFactor="0.99" vaporized=""/>
    <tripinfo id="Phase4_flow.4" depart="62.00" departLane="J2E3_1" departPos="4.10" departSpeed="0.00" departDelay="0.72" arrival="151.00" arrivalLane="E4C4_2" arrivalPos="450.00" arrivalSpeed="14.13" duration="89.00" routeLength="1000.69" waitingTime="5.00" waitingCount="1" stopTime="0.00" timeLoss="20.44" rerouteNo="1" devices="tripinfo_Phase4_flow.4 routing_Phase4_flow.4" vType="Auto" speedFactor="1.07" vaporized=""/>
    <tripinfo id="Phase8_flow.4" depart="58.00" departLane="C1E1_1" departPos="4.10" departSpeed="0.00" departDelay="0.63" arrival="154.00" arrivalLane="E2N1_0" arrivalPos="400.00" arrivalSpeed="11.97" duration="96.00" routeLength="1000.69" waitingTime="1.00" waitingCount="1" stopTime="0.00" timeLoss="15.84" rerouteNo="1" devices="tripinfo_Phase8_flow.4 routing_Phase8_flow.4" vType="Auto" speedFactor="0.91" vaporized=""/>
    <tripinfo id="Phase4_flow.2" depart="31.00" departLane="J2E3_1" departPos="4.10" departSpeed="0.00" departDelay="0.36" arrival="155.00" arrivalLane="E4C4_0" arrivalPos="450.00" arrivalSpeed="11.38" duration="124.00" routeLength="1000.69" waitingTime="25.00" waitingCount="1" stopTime="0.00" timeLoss="39.25" rerouteNo="1" devices="tripinfo_Phase4_flow.2 routing_Phase4_flow.2" vType="Auto" speedFactor="0.86" vaporized=""/>
    <tripinfo id="Phase5THR_flow.5" depart="27.00" departLane="C4E4_0" departPos="4.10" departSpeed="0.00" departDelay="0.18" arrival="156.00" arrivalLane="E2N1_0" arrivalPos="400.00" arrivalSpeed="14.17" duration="129.00" routeLength="998.04" waitingTime="50.00" waitingCount="1" stopTime="0.00" timeLoss="61.73" rerouteNo="1" devices="tripinfo_Phase5THR_flow.5 routing_Phase5THR_flow.5" vType="Auto" speedFactor="1.08" vaporized=""/>
    <tripinfo id="Phase1THR_flow.5" depart="40.00" departLane="N1E2_0" departPos="4.10" departSpeed="0.00" departDelay="0.27" arrival="156.00" arrivalLane="E4C4_1" arrivalPos="450.00" arrivalSpeed="13.55" duration="116.00" routeLength="998.04" waitingTime="36.00" waitingCount="1" stopTime="0.00" timeLoss="47.89" rerouteNo="1" devices="tripinfo_Phase1THR_flow.5 routing_Phase1THR_flow.5" vType="Auto" speedFactor="1.06" vaporized=""/>
    <tripinfo id="Phase5THR_flow.4" depart="22.00" departLane="C4E4_0" departPos="4.10" departSpeed="0.00" departDelay="0.54" arrival="158.00" arrivalLane="E2N1_0" arrivalPos="400.00" arrivalSpeed="13.76" duration="136.00" routeLength="998.04" waitingTime="51.00" waitingCount="1" stopTime="0.00" timeLoss="63.91" rerouteNo="1" devices="tripinfo_Phase5THR_flow.4 routing_Phase5THR_flow.4" vType="Auto" speedFactor="1.00" vaporized=""/>
    <tripinfo id="Phase5THR_flow.6" depart="33.00" departLane="C4E4_0" departPos="4.10" departSpeed="0.00" departDelay="0.81" arrival="159.00" arrivalLane="E2N1_1" arrivalPos="400.00" arrivalSpeed="14.62" duration="126.00" routeLength="998.04" waitingTime="43.00" waitingCount="1" stopTime="0.00" timeLoss="58.45" rerouteNo="1" devices="tripinfo_Phase5THR_flow.6 routing_Phase5THR_flow.6" vType="Auto" speedFactor="1.08" vaporized=""/>
    <tripinfo id="Phase1Right_flow.2" depart="44.00" departLane="N1E2_0" departPos="4.10" departSpeed="0.00" departDelay="0.10" arrival="159.00" arrivalLane="E1C1_0" arrivalPos="400.00" arrivalSpeed="14.42" duration="115.00" routeLength="979.87" waitingTime="32.00" waitingCount="1" stopTime="0.00" timeLoss="48.28" rerouteNo="1" devices="tripinfo_Phase1Right_flow.2 routing_Phase1Right_flow.2" vType="Auto" speedFactor="1.08" vaporized=""/>
    <tripinfo id="Phase1THR_flow.7" depart="56.00" departLane="N1E2_0" departPos="4.10" departSpeed="0.00" departDelay="0.37" arrival="160.00" arrivalLane="E4C4_1" arrivalPos="450.00" arrivalSpeed="13.46" duration="104.00" routeLength="998.04" waitingTime="24.00" waitingCount="1" stopTime="0.00" timeLoss="36.42" rerouteNo="1" devices="tripinfo_Phase1THR_flow.7 routing_Phase1THR_flow.7" vType="Auto" speedFactor="1.07" vaporized=""/>
    <tripinfo id="Phase5THR_flow.9" depart="49.00" departLane="C4E4_0" departPos="4.10" departSpeed="0.00" departDelay="0.72" arrival="162.00" arrivalLane="E2N1_0" arrivalPos="400.00" arrivalSpeed="14.87" duration="113.00" routeLength="998.04" waitingTime="34.00" waitingCount="1" stopTime="0.00" timeLoss="47.89" rerouteNo="1" devices="tripinfo_Phase5THR_flow.9 routing_Phase5THR_flow.9" vType="Auto" speedFactor="1.11" vaporized=""/>
    <tripinfo id="Phase5THR_flow.12" depart="65.00" departLane="C4E4_0" departPos="4.10" departSpeed="0.00" departDelay="0.62" arrival="162.00" arrivalLane="E2N1_2" arrivalPos="400.00" arrivalSpeed="14.70" duration="97.00" routeLength="998.04" waitingTime="19.00" waitingCount="1" stopTime="0.00" timeLoss="33.21" rerouteNo="1" devices="tripinfo_Phase5THR_flow.12 routing_Phase5THR_flow.12" vType="Auto" speedFactor="1.13" vaporized=""/>
    <tripinfo id="Phase5THR_flow.7" depart="39.00" departLane="C4E4_0" departPos="4.10" departSpeed="0.00" departDelay="1.45" arrival="163.00" arrivalLane="E2N1_1" arrivalPos="400.00" arrivalSpeed="11.97" duration="124.00" routeLength="998.04" waitingTime="35.00" waitingCount="1" stopTime="0.00" timeLoss="46.89" rerouteNo="1" devices="tripinfo_Phase5THR_flow.7 routing_Phase5THR_flow.7" vType="Auto" speedFactor="0.93" vaporized=""/>
    <tripinfo id="Phase1THR_flow.6" depart="48.00" departLane="N1E2_0" departPos="4.10" departSpeed="0.00" departDelay="0.32" arrival="163.00" arrivalLane="E4C4_0" arrivalPos="450.00" arrivalSpeed="12.28" duration="115.00" routeLength="998.04" waitingTime="26.00" waitingCount="1" stopTime="0.00" timeLoss="37.57" rerouteNo="1" devices="tripinfo_Phase1THR_flow.6 routing_Phase1THR_flow.6" vType="Auto" speedFactor="0.94" vaporized=""/>
    <tripinfo id="Phase5THR_flow.8" depart="43.00" departLane="C4E4_0" departPos="4.10" departSpeed="0.00" departDelay="0.08" arrival="164.00" arrivalLane="E2N1_0" arrivalPos="400.00" arrivalSpeed="13.82" duration="121.00" routeLength="998.04" waitingTime="32.00" waitingCount="1" stopTime="0.00" timeLoss="50.95" rerouteNo="1" devices="tripinfo_Phase5THR_flow.8 routing_Phase5THR_flow.8" vType="Auto" speedFactor="1.03" vaporized=""/>
    <tripinfo id="Phase1THR_flow.3" depart="24.00" departLane="N1E2_0" departPos="4.10" departSpeed="0.00" departDelay="0.16" arrival="165.00" arrivalLane="E4C4_0" arrivalPos="450.00" arrivalSpeed="11.14" duration="141.00" routeLength="998.04" waitingTime="44.00" waitingCount="1" stopTime="0.00" timeLoss="56.25" rerouteNo="1" devices="tripinfo_Phase1THR_flow.3 routing_Phase1THR_flow.3" vType="Auto" speedFactor="0.85" vaporized=""/>
    <tripinfo id="Phase5THR_flow.11" depart="60.00" departLane="C4E4_0" departPos="4.10" departSpeed="0.00" departDelay="0.99" arrival="165.00" arrivalLane="E2N1_1" arrivalPos="400.00" arrivalSpeed="15.99" duration="105.00" routeLength="998.04" waitingTime="23.00" waitingCount="1" stopTime="0.00" timeLoss="42.09" rerouteNo="1" devices="tripinfo_Phase5THR_flow.11 routing_Phase5THR_flow.11" vType="Auto" speedFactor="1.16" vaporized=""/>
    <tripinfo id="Phase1THR_flow.9" depart="72.00" departLane="N1E2_0" departPos="4.10" departSpeed="0.00" departDelay="0.48" arrival="165.00" arrivalLane="E4C4_1" arrivalPos="450.00" arrivalSpeed="13.34" duration="93.00" routeLength="998.04" waitingTime="5.00" waitingCount="1" stopTime="0.00" timeLoss="18.21" rerouteNo="1" devices="tripinfo_Phase1THR_flow.9 routing_Phase1THR_flow.9" vType="Auto" speedFactor="0.97" vaporized=""/>
    <tripinfo id="Phase1Right_flow.4" depart="90.00" departLane="N1E2_0" departPos="4.10" departSpeed="0.00" departDelay="2.20" arrival="165.00" arrivalLane="E1C1_1" arrivalPos="400.00" arrivalSpeed="15.96" duration="75.00" routeLength="979.87" waitingTime="0.00" waitingCount="0" stopTime="0.00" timeLoss="12.40" rerouteNo="1" devices="tripinfo_Phase1Right_flow.4 routing_Phase1Right_flow.4" vType="Auto" speedFactor="1.16" vaporized=""/>